 vasp.5.4.4.18Apr17-6-g9f103f2a35 (build Jul 13 2017 13:34:26) complex          
  
 executed on     SGIICEXA-Intel17 date 2019.10.22  10:06:25
 running on   36 total cores
 distrk:  each k-point on   18 cores,    2 groups
 distr:  one band on NCORES_PER_BAND=   1 cores,   18 groups


--------------------------------------------------------------------------------------------------------


 INCAR:
 POTCAR:    PAW_PBE Ba_sv 06Sep2000               
 POTCAR:    PAW_PBE Ti_pv 07Sep2000               
 POTCAR:    PAW_PBE O 08Apr2002                   

 ----------------------------------------------------------------------------- 
|                                                                             |
|           W    W    AA    RRRRR   N    N  II  N    N   GGGG   !!!           |
|           W    W   A  A   R    R  NN   N  II  NN   N  G    G  !!!           |
|           W    W  A    A  R    R  N N  N  II  N N  N  G       !!!           |
|           W WW W  AAAAAA  RRRRR   N  N N  II  N  N N  G  GGG   !            |
|           WW  WW  A    A  R   R   N   NN  II  N   NN  G    G                |
|           W    W  A    A  R    R  N    N  II  N    N   GGGG   !!!           |
|                                                                             |
|      For optimal performance we recommend to set                            |
|        NCORE= 4 - approx SQRT( number of cores)                             |
|      NCORE specifies how many cores store one orbital (NPAR=cpu/NCORE).     |
|      This setting can  greatly improve the performance of VASP for DFT.     |
|      The default,   NCORE=1            might be grossly inefficient         |
|      on modern multi-core architectures or massively parallel machines.     |
|      Do your own testing !!!!                                               |
|      Unfortunately you need to use the default for GW and RPA calculations. |
|      (for HF NCORE is supported but not extensively tested yet)             |
|                                                                             |
 ----------------------------------------------------------------------------- 


 ----------------------------------------------------------------------------- 
|                                                                             |
|           W    W    AA    RRRRR   N    N  II  N    N   GGGG   !!!           |
|           W    W   A  A   R    R  NN   N  II  NN   N  G    G  !!!           |
|           W    W  A    A  R    R  N N  N  II  N N  N  G       !!!           |
|           W WW W  AAAAAA  RRRRR   N  N N  II  N  N N  G  GGG   !            |
|           WW  WW  A    A  R   R   N   NN  II  N   NN  G    G                |
|           W    W  A    A  R    R  N    N  II  N    N   GGGG   !!!           |
|                                                                             |
|      You have enabled k-point parallelism (KPAR>1).                         |
|      This developmental code was originally  written by Paul Kent at ORNL,  |
|      and carefully double checked in Vienna.                                |
|      GW as well as linear response parallelism added by Martijn Marsman     |
|      and Georg Kresse.                                                      |
|      Carefully verify results versus KPAR=1.                                |
|      Report problems to Paul Kent and Vienna.                               |
|                                                                             |
 ----------------------------------------------------------------------------- 

 POTCAR:    PAW_PBE Ba_sv 06Sep2000               
   VRHFIN =Ba: 5s5p6s                                                           
   LEXCH  = PE                                                                  
   EATOM  =   700.8560 eV,   51.5115 Ry                                         
                                                                                
   TITEL  = PAW_PBE Ba_sv 06Sep2000                                             
   LULTRA =        F    use ultrasoft PP ?                                      
   IUNSCR =        1    unscreen: 0-lin 1-nonlin 2-no                           
   RPACOR =    2.400    partial core radius                                     
   POMASS =  137.327; ZVAL   =   10.000    mass and valenz                      
   RCORE  =    2.800    outmost cutoff radius                                   
   RWIGS  =    3.740; RWIGS  =    1.979    wigner-seitz radius (au A)           
   ENMAX  =  187.181; ENMIN  =  140.386 eV                                      
   RCLOC  =    2.516    cutoff for local pot                                    
   LCOR   =        T    correct aug charges                                     
   LPAW   =        T    paw PP                                                  
   EAUG   =  351.165                                                            
   DEXC   =    0.000                                                            
   RMAX   =    2.865    core radius for proj-oper                               
   RAUG   =    1.300    factor for augmentation sphere                          
   RDEP   =    2.976    radius for radial grids                                 
   RDEPT  =    2.289    core radius for aug-charge                              
                                                                                
   Atomic configuration                                                         
   13 entries                                                                   
     n  l   j            E        occ.                                          
     1  0  0.50    -37249.5946   2.0000                                         
     2  0  0.50     -5887.1925   2.0000                                         
     2  1  1.50     -5278.3977   6.0000                                         
     3  0  0.50     -1242.7293   2.0000                                         
     3  1  1.50     -1047.6609   6.0000                                         
     3  2  2.50      -764.6158  10.0000                                         
     4  0  0.50      -243.8228   2.0000                                         
     4  1  1.50      -180.9218   6.0000                                         
     4  2  2.50       -89.6477  10.0000                                         
     5  0  0.50       -33.6549   2.0000                                         
     6  0  0.50        -3.2247   1.9900                                         
     5  1  1.50       -18.7193   6.0000                                         
     5  2  2.50        -2.0115   0.0100                                         
   Description                                                                  
     l       E           TYP  RCUT    TYP  RCUT                                 
     0    -33.6549039     23  2.800                                             
     0     -3.2246942     23  2.800                                             
     1    -18.7193050     23  2.700                                             
     1     27.2116520     23  2.700                                             
     2     -2.0115002     23  2.700                                             
     2      0.3057420     23  2.700                                             
  local pseudopotential read in
  partial core-charges read in
  partial kinetic energy density read in
  atomic valenz-charges read in
  non local Contribution for L=           0  read in
    real space projection operators read in
  non local Contribution for L=           0  read in
    real space projection operators read in
  non local Contribution for L=           1  read in
    real space projection operators read in
  non local Contribution for L=           1  read in
    real space projection operators read in
  non local Contribution for L=           2  read in
    real space projection operators read in
  non local Contribution for L=           2  read in
    real space projection operators read in
    PAW grid and wavefunctions read in
 
   number of l-projection  operators is LMAX  =           6
   number of lm-projection operators is LMMAX =          18
 
 POTCAR:    PAW_PBE Ti_pv 07Sep2000               
   VRHFIN =Ti: d3 s1                                                            
   LEXCH  = PE                                                                  
   EATOM  =  1042.5995 eV,   76.6289 Ry                                         
                                                                                
   TITEL  = PAW_PBE Ti_pv 07Sep2000                                             
   LULTRA =        F    use ultrasoft PP ?                                      
   IUNSCR =        1    unscreen: 0-lin 1-nonlin 2-no                           
   RPACOR =    2.200    partial core radius                                     
   POMASS =   47.880; ZVAL   =   10.000    mass and valenz                      
   RCORE  =    2.500    outmost cutoff radius                                   
   RWIGS  =    2.500; RWIGS  =    1.323    wigner-seitz radius (au A)           
   ENMAX  =  222.335; ENMIN  =  166.751 eV                                      
   RCLOC  =    1.701    cutoff for local pot                                    
   LCOR   =        T    correct aug charges                                     
   LPAW   =        T    paw PP                                                  
   EAUG   =  482.848                                                            
   DEXC   =    0.000                                                            
   RMAX   =    2.564    core radius for proj-oper                               
   RAUG   =    1.300    factor for augmentation sphere                          
   RDEP   =    2.538    radius for radial grids                                 
   RDEPT  =    1.952    core radius for aug-charge                              
                                                                                
   Atomic configuration                                                         
    8 entries                                                                   
     n  l   j            E        occ.                                          
     1  0  0.50     -4865.3608   2.0000                                         
     2  0  0.50      -533.1368   2.0000                                         
     2  1  1.50      -440.5031   6.0000                                         
     3  0  0.50       -59.3186   2.0000                                         
     3  1  1.50       -35.7012   6.0000                                         
     3  2  2.50        -1.9157   3.0000                                         
     4  0  0.50        -3.7291   1.0000                                         
     4  3  2.50        -1.3606   0.0000                                         
   Description                                                                  
     l       E           TYP  RCUT    TYP  RCUT                                 
     1    -35.7012140     23  2.300                                             
     1     -1.3605826     23  2.300                                             
     2     -1.9156996     23  2.500                                             
     2     -0.4063033     23  2.500                                             
     0     -3.7290856     23  2.500                                             
     0     20.4087390     23  2.500                                             
  local pseudopotential read in
  partial core-charges read in
  partial kinetic energy density read in
  atomic valenz-charges read in
  non local Contribution for L=           1  read in
    real space projection operators read in
  non local Contribution for L=           1  read in
    real space projection operators read in
  non local Contribution for L=           2  read in
    real space projection operators read in
  non local Contribution for L=           2  read in
    real space projection operators read in
  non local Contribution for L=           0  read in
    real space projection operators read in
  non local Contribution for L=           0  read in
    real space projection operators read in
    PAW grid and wavefunctions read in
 
   number of l-projection  operators is LMAX  =           6
   number of lm-projection operators is LMMAX =          18
 
 POTCAR:    PAW_PBE O 08Apr2002                   
   VRHFIN =O: s2p4                                                              
   LEXCH  = PE                                                                  
   EATOM  =   432.3788 eV,   31.7789 Ry                                         
                                                                                
   TITEL  = PAW_PBE O 08Apr2002                                                 
   LULTRA =        F    use ultrasoft PP ?                                      
   IUNSCR =        1    unscreen: 0-lin 1-nonlin 2-no                           
   RPACOR =    1.200    partial core radius                                     
   POMASS =   16.000; ZVAL   =    6.000    mass and valenz                      
   RCORE  =    1.520    outmost cutoff radius                                   
   RWIGS  =    1.550; RWIGS  =    0.820    wigner-seitz radius (au A)           
   ENMAX  =  400.000; ENMIN  =  300.000 eV                                      
   ICORE  =        2    local potential                                         
   LCOR   =        T    correct aug charges                                     
   LPAW   =        T    paw PP                                                  
   EAUG   =  605.392                                                            
   DEXC   =    0.000                                                            
   RMAX   =    1.553    core radius for proj-oper                               
   RAUG   =    1.300    factor for augmentation sphere                          
   RDEP   =    1.550    radius for radial grids                                 
   RDEPT  =    1.329    core radius for aug-charge                              
                                                                                
   Atomic configuration                                                         
    4 entries                                                                   
     n  l   j            E        occ.                                          
     1  0  0.50      -514.6923   2.0000                                         
     2  0  0.50       -23.9615   2.0000                                         
     2  1  0.50        -9.0305   4.0000                                         
     3  2  1.50        -9.5241   0.0000                                         
   Description                                                                  
     l       E           TYP  RCUT    TYP  RCUT                                 
     0    -23.9615318     23  1.200                                             
     0     -9.5240782     23  1.200                                             
     1     -9.0304911     23  1.520                                             
     1      8.1634956     23  1.520                                             
     2     -9.5240782      7  1.500                                             
  local pseudopotential read in
  partial core-charges read in
  partial kinetic energy density read in
  kinetic energy density of atom read in
  atomic valenz-charges read in
  non local Contribution for L=           0  read in
    real space projection operators read in
  non local Contribution for L=           0  read in
    real space projection operators read in
  non local Contribution for L=           1  read in
    real space projection operators read in
  non local Contribution for L=           1  read in
    real space projection operators read in
    PAW grid and wavefunctions read in
 
   number of l-projection  operators is LMAX  =           4
   number of lm-projection operators is LMMAX =           8
 
 WARNING: PSMAXN for non-local potential too small
          PSMAXN should be >   14.4904333269122       NTYP=           1

 ----------------------------------------------------------------------------- 
|                                                                             |
|  ADVICE TO THIS USER RUNNING 'VASP/VAMP'   (HEAR YOUR MASTER'S VOICE ...):  |
|                                                                             |
|      You enforced a specific xc-type in the INCAR file,                     |
|      a different type was found on the POTCAR file                          |
|          I HOPE YOU KNOW, WHAT YOU ARE  DOING                               |
|                                                                             |
 ----------------------------------------------------------------------------- 

  PAW_PBE Ba_sv 06Sep2000               :
 energy of atom  1       EATOM= -700.8560
 kinetic energy error for atom=    0.0001 (will be added to EATOM!!)
  PAW_PBE Ti_pv 07Sep2000               :
 energy of atom  2       EATOM=-1042.5995
 kinetic energy error for atom=    0.0003 (will be added to EATOM!!)
  PAW_PBE O 08Apr2002                   :
 energy of atom  3       EATOM= -432.3788
 kinetic energy error for atom=    0.0041 (will be added to EATOM!!)
 
 
 POSCAR: BaTiO3 (mp-2998)                        
  positions in direct lattice
  velocities in cartesian coordinates
 exchange correlation table for  LEXCH =       14
   RHO(1)=    0.500       N(1)  =     2000
   RHO(2)=  100.500       N(2)  =     4000
 


--------------------------------------------------------------------------------------------------------


 ion  position               nearest neighbor table
   1  0.000  0.000  0.000-   3 2.82   4 2.82   5 2.82   3 2.82   4 2.82   3 2.82   5 2.82   3 2.82
                             4 2.82   5 2.82   4 2.82   5 2.82   2 3.45   2 3.45   2 3.45   2 3.45
   2  0.500  0.500  0.500-   3 1.99   4 1.99   5 1.99   5 1.99   4 1.99   3 1.99   1 3.45   1 3.45
                             1 3.45   1 3.45   1 3.45   1 3.45   1 3.45   1 3.45
   3  0.000  0.500  0.500-   2 1.99   2 1.99   1 2.82   1 2.82   1 2.82   1 2.82
   4  0.500  0.000  0.500-   2 1.99   2 1.99   1 2.82   1 2.82   1 2.82   1 2.82
   5  0.500  0.500  0.000-   2 1.99   2 1.99   1 2.82   1 2.82   1 2.82   1 2.82
 
  LATTYP: Found a simple cubic cell.
 ALAT       =     3.9866190269
  
  Lattice vectors:
  
 A1 = (   3.9866190269,   0.0000000000,   0.0000000000)
 A2 = (   0.0000000000,   3.9866190269,   0.0000000000)
 A3 = (   0.0000000000,   0.0000000000,   3.9866190269)


Analysis of symmetry for initial positions (statically):
=====================================================================
 Subroutine PRICEL returns:
 Original cell was already a primitive cell.
 

 Routine SETGRP: Setting up the symmetry group for a 
 simple cubic supercell.


 Subroutine GETGRP returns: Found 48 space group operations
 (whereof 48 operations were pure point group operations)
 out of a pool of 48 trial point group operations.


The static configuration has the point symmetry O_h .


Analysis of symmetry for dynamics (positions and initial velocities):
=====================================================================
 Subroutine PRICEL returns:
 Original cell was already a primitive cell.
 

 Routine SETGRP: Setting up the symmetry group for a 
 simple cubic supercell.


 Subroutine GETGRP returns: Found 48 space group operations
 (whereof 48 operations were pure point group operations)
 out of a pool of 48 trial point group operations.


The dynamic configuration has the point symmetry O_h .


 Subroutine INISYM returns: Found 48 space group operations
 (whereof 48 operations are pure point group operations),
 and found     1 'primitive' translations

 
 
 KPOINTS: Automatic 6x6x6                         

Automatic generation of k-mesh.
Space group operators:
 irot       det(A)        alpha          n_x          n_y          n_z        tau_x        tau_y        tau_z
    1     1.000000     0.000000     1.000000     0.000000     0.000000     0.000000     0.000000     0.000000
    2    -1.000000     0.000000     1.000000     0.000000     0.000000     0.000000     0.000000     0.000000
    3     1.000000   120.000000    -0.577350    -0.577350    -0.577350     0.000000     0.000000     0.000000
    4    -1.000000   120.000000    -0.577350    -0.577350    -0.577350     0.000000     0.000000     0.000000
    5     1.000000   120.000000     0.577350     0.577350     0.577350     0.000000     0.000000     0.000000
    6    -1.000000   120.000000     0.577350     0.577350     0.577350     0.000000     0.000000     0.000000
    7     1.000000    90.000000     0.000000     0.000000    -1.000000     0.000000     0.000000     0.000000
    8    -1.000000    90.000000     0.000000     0.000000    -1.000000     0.000000     0.000000     0.000000
    9     1.000000   180.000000     0.000000     0.707107     0.707107     0.000000     0.000000     0.000000
   10    -1.000000   180.000000     0.000000     0.707107     0.707107     0.000000     0.000000     0.000000
   11     1.000000    90.000000     0.000000     1.000000     0.000000     0.000000     0.000000     0.000000
   12    -1.000000    90.000000     0.000000     1.000000     0.000000     0.000000     0.000000     0.000000
   13     1.000000   180.000000     0.000000     0.000000     1.000000     0.000000     0.000000     0.000000
   14    -1.000000   180.000000     0.000000     0.000000     1.000000     0.000000     0.000000     0.000000
   15     1.000000   120.000000    -0.577350     0.577350     0.577350     0.000000     0.000000     0.000000
   16    -1.000000   120.000000    -0.577350     0.577350     0.577350     0.000000     0.000000     0.000000
   17     1.000000   120.000000    -0.577350     0.577350    -0.577350     0.000000     0.000000     0.000000
   18    -1.000000   120.000000    -0.577350     0.577350    -0.577350     0.000000     0.000000     0.000000
   19     1.000000    90.000000     0.000000     0.000000     1.000000     0.000000     0.000000     0.000000
   20    -1.000000    90.000000     0.000000     0.000000     1.000000     0.000000     0.000000     0.000000
   21     1.000000    90.000000    -1.000000     0.000000     0.000000     0.000000     0.000000     0.000000
   22    -1.000000    90.000000    -1.000000     0.000000     0.000000     0.000000     0.000000     0.000000
   23     1.000000   180.000000     0.707107     0.000000     0.707107     0.000000     0.000000     0.000000
   24    -1.000000   180.000000     0.707107     0.000000     0.707107     0.000000     0.000000     0.000000
   25     1.000000   120.000000     0.577350    -0.577350     0.577350     0.000000     0.000000     0.000000
   26    -1.000000   120.000000     0.577350    -0.577350     0.577350     0.000000     0.000000     0.000000
   27     1.000000   120.000000    -0.577350    -0.577350     0.577350     0.000000     0.000000     0.000000
   28    -1.000000   120.000000    -0.577350    -0.577350     0.577350     0.000000     0.000000     0.000000
   29     1.000000   180.000000     1.000000     0.000000     0.000000     0.000000     0.000000     0.000000
   30    -1.000000   180.000000     1.000000     0.000000     0.000000     0.000000     0.000000     0.000000
   31     1.000000    90.000000     0.000000    -1.000000     0.000000     0.000000     0.000000     0.000000
   32    -1.000000    90.000000     0.000000    -1.000000     0.000000     0.000000     0.000000     0.000000
   33     1.000000   180.000000     0.707107     0.707107     0.000000     0.000000     0.000000     0.000000
   34    -1.000000   180.000000     0.707107     0.707107     0.000000     0.000000     0.000000     0.000000
   35     1.000000    90.000000     1.000000     0.000000     0.000000     0.000000     0.000000     0.000000
   36    -1.000000    90.000000     1.000000     0.000000     0.000000     0.000000     0.000000     0.000000
   37     1.000000   120.000000     0.577350    -0.577350    -0.577350     0.000000     0.000000     0.000000
   38    -1.000000   120.000000     0.577350    -0.577350    -0.577350     0.000000     0.000000     0.000000
   39     1.000000   180.000000     0.000000     1.000000     0.000000     0.000000     0.000000     0.000000
   40    -1.000000   180.000000     0.000000     1.000000     0.000000     0.000000     0.000000     0.000000
   41     1.000000   120.000000     0.577350     0.577350    -0.577350     0.000000     0.000000     0.000000
   42    -1.000000   120.000000     0.577350     0.577350    -0.577350     0.000000     0.000000     0.000000
   43     1.000000   180.000000     0.000000    -0.707107     0.707107     0.000000     0.000000     0.000000
   44    -1.000000   180.000000     0.000000    -0.707107     0.707107     0.000000     0.000000     0.000000
   45     1.000000   180.000000     0.707107    -0.707107     0.000000     0.000000     0.000000     0.000000
   46    -1.000000   180.000000     0.707107    -0.707107     0.000000     0.000000     0.000000     0.000000
   47     1.000000   180.000000     0.707107     0.000000    -0.707107     0.000000     0.000000     0.000000
   48    -1.000000   180.000000     0.707107     0.000000    -0.707107     0.000000     0.000000     0.000000
 
 Subroutine IBZKPT returns following result:
 ===========================================
 
 Found     20 irreducible k-points:
 
 Following reciprocal coordinates:
            Coordinates               Weight
  0.000000  0.000000  0.000000      1.000000
  0.166667  0.000000  0.000000      6.000000
  0.333333  0.000000  0.000000      6.000000
  0.500000  0.000000  0.000000      3.000000
  0.166667  0.166667  0.000000     12.000000
  0.333333  0.166667  0.000000     24.000000
  0.500000  0.166667  0.000000     12.000000
  0.333333  0.333333  0.000000     12.000000
  0.500000  0.333333  0.000000     12.000000
  0.500000  0.500000  0.000000      3.000000
  0.166667  0.166667  0.166667      8.000000
  0.333333  0.166667  0.166667     24.000000
  0.500000  0.166667  0.166667     12.000000
  0.333333  0.333333  0.166667     24.000000
  0.500000  0.333333  0.166667     24.000000
  0.500000  0.500000  0.166667      6.000000
  0.333333  0.333333  0.333333      8.000000
  0.500000  0.333333  0.333333     12.000000
  0.500000  0.500000  0.333333      6.000000
  0.500000  0.500000  0.500000      1.000000
 
 Following cartesian coordinates:
            Coordinates               Weight
  0.000000  0.000000  0.000000      1.000000
  0.041807  0.000000  0.000000      6.000000
  0.083613  0.000000  0.000000      6.000000
  0.125420  0.000000  0.000000      3.000000
  0.041807  0.041807  0.000000     12.000000
  0.083613  0.041807  0.000000     24.000000
  0.125420  0.041807  0.000000     12.000000
  0.083613  0.083613  0.000000     12.000000
  0.125420  0.083613  0.000000     12.000000
  0.125420  0.125420  0.000000      3.000000
  0.041807  0.041807  0.041807      8.000000
  0.083613  0.041807  0.041807     24.000000
  0.125420  0.041807  0.041807     12.000000
  0.083613  0.083613  0.041807     24.000000
  0.125420  0.083613  0.041807     24.000000
  0.125420  0.125420  0.041807      6.000000
  0.083613  0.083613  0.083613      8.000000
  0.125420  0.083613  0.083613     12.000000
  0.125420  0.125420  0.083613      6.000000
  0.125420  0.125420  0.125420      1.000000
 
 
 Subroutine IBZKPT_HF returns following result:
 ==============================================
 
 Found    216 k-points in 1st BZ
 the following    216 k-points will be used (e.g. in the exchange kernel)
 Following reciprocal coordinates:   # in IRBZ
  0.000000  0.000000  0.000000    0.00462963   1 t-inv F
  0.166667  0.000000  0.000000    0.00462963   2 t-inv F
  0.333333  0.000000  0.000000    0.00462963   3 t-inv F
  0.500000  0.000000  0.000000    0.00462963   4 t-inv F
  0.166667  0.166667  0.000000    0.00462963   5 t-inv F
  0.333333  0.166667  0.000000    0.00462963   6 t-inv F
  0.500000  0.166667  0.000000    0.00462963   7 t-inv F
  0.333333  0.333333  0.000000    0.00462963   8 t-inv F
  0.500000  0.333333  0.000000    0.00462963   9 t-inv F
  0.500000  0.500000  0.000000    0.00462963  10 t-inv F
  0.166667  0.166667  0.166667    0.00462963  11 t-inv F
  0.333333  0.166667  0.166667    0.00462963  12 t-inv F
  0.500000  0.166667  0.166667    0.00462963  13 t-inv F
  0.333333  0.333333  0.166667    0.00462963  14 t-inv F
  0.500000  0.333333  0.166667    0.00462963  15 t-inv F
  0.500000  0.500000  0.166667    0.00462963  16 t-inv F
  0.333333  0.333333  0.333333    0.00462963  17 t-inv F
  0.500000  0.333333  0.333333    0.00462963  18 t-inv F
  0.500000  0.500000  0.333333    0.00462963  19 t-inv F
  0.500000  0.500000  0.500000    0.00462963  20 t-inv F
 -0.166667  0.000000  0.000000    0.00462963   2 t-inv F
  0.000000  0.166667  0.000000    0.00462963   2 t-inv F
  0.000000 -0.166667  0.000000    0.00462963   2 t-inv F
  0.000000  0.000000  0.166667    0.00462963   2 t-inv F
  0.000000  0.000000 -0.166667    0.00462963   2 t-inv F
 -0.333333  0.000000  0.000000    0.00462963   3 t-inv F
  0.000000  0.333333  0.000000    0.00462963   3 t-inv F
  0.000000 -0.333333  0.000000    0.00462963   3 t-inv F
  0.000000  0.000000  0.333333    0.00462963   3 t-inv F
  0.000000  0.000000 -0.333333    0.00462963   3 t-inv F
  0.000000  0.500000  0.000000    0.00462963   4 t-inv F
  0.000000  0.000000  0.500000    0.00462963   4 t-inv F
 -0.166667 -0.166667  0.000000    0.00462963   5 t-inv F
  0.000000  0.166667  0.166667    0.00462963   5 t-inv F
  0.000000 -0.166667 -0.166667    0.00462963   5 t-inv F
  0.166667  0.000000  0.166667    0.00462963   5 t-inv F
 -0.166667  0.000000 -0.166667    0.00462963   5 t-inv F
 -0.166667  0.166667  0.000000    0.00462963   5 t-inv F
  0.166667 -0.166667  0.000000    0.00462963   5 t-inv F
 -0.166667  0.000000  0.166667    0.00462963   5 t-inv F
  0.166667  0.000000 -0.166667    0.00462963   5 t-inv F
  0.000000 -0.166667  0.166667    0.00462963   5 t-inv F
  0.000000  0.166667 -0.166667    0.00462963   5 t-inv F
 -0.333333 -0.166667  0.000000    0.00462963   6 t-inv F
  0.000000  0.333333  0.166667    0.00462963   6 t-inv F
  0.000000 -0.333333 -0.166667    0.00462963   6 t-inv F
  0.166667  0.000000  0.333333    0.00462963   6 t-inv F
 -0.166667  0.000000 -0.333333    0.00462963   6 t-inv F
 -0.166667  0.333333  0.000000    0.00462963   6 t-inv F
  0.166667 -0.333333  0.000000    0.00462963   6 t-inv F
 -0.333333  0.000000  0.166667    0.00462963   6 t-inv F
  0.333333  0.000000 -0.166667    0.00462963   6 t-inv F
  0.000000  0.166667  0.333333    0.00462963   6 t-inv F
  0.000000 -0.166667 -0.333333    0.00462963   6 t-inv F
  0.000000 -0.333333  0.166667    0.00462963   6 t-inv F
  0.000000  0.333333 -0.166667    0.00462963   6 t-inv F
 -0.166667  0.000000  0.333333    0.00462963   6 t-inv F
  0.166667  0.000000 -0.333333    0.00462963   6 t-inv F
  0.333333  0.000000  0.166667    0.00462963   6 t-inv F
 -0.333333  0.000000 -0.166667    0.00462963   6 t-inv F
  0.000000 -0.166667  0.333333    0.00462963   6 t-inv F
  0.000000  0.166667 -0.333333    0.00462963   6 t-inv F
  0.333333 -0.166667  0.000000    0.00462963   6 t-inv F
 -0.333333  0.166667  0.000000    0.00462963   6 t-inv F
  0.166667  0.333333  0.000000    0.00462963   6 t-inv F
 -0.166667 -0.333333  0.000000    0.00462963   6 t-inv F
 -0.500000 -0.166667  0.000000    0.00462963   7 t-inv F
  0.000000  0.500000  0.166667    0.00462963   7 t-inv F
  0.000000 -0.500000 -0.166667    0.00462963   7 t-inv F
  0.166667  0.000000  0.500000    0.00462963   7 t-inv F
 -0.166667  0.000000 -0.500000    0.00462963   7 t-inv F
 -0.166667  0.500000  0.000000    0.00462963   7 t-inv F
  0.166667 -0.500000  0.000000    0.00462963   7 t-inv F
 -0.500000  0.000000  0.166667    0.00462963   7 t-inv F
  0.500000  0.000000 -0.166667    0.00462963   7 t-inv F
  0.000000  0.166667  0.500000    0.00462963   7 t-inv F
  0.000000 -0.166667 -0.500000    0.00462963   7 t-inv F
 -0.333333 -0.333333  0.000000    0.00462963   8 t-inv F
  0.000000  0.333333  0.333333    0.00462963   8 t-inv F
  0.000000 -0.333333 -0.333333    0.00462963   8 t-inv F
  0.333333  0.000000  0.333333    0.00462963   8 t-inv F
 -0.333333  0.000000 -0.333333    0.00462963   8 t-inv F
 -0.333333  0.333333  0.000000    0.00462963   8 t-inv F
  0.333333 -0.333333  0.000000    0.00462963   8 t-inv F
 -0.333333  0.000000  0.333333    0.00462963   8 t-inv F
  0.333333  0.000000 -0.333333    0.00462963   8 t-inv F
  0.000000 -0.333333  0.333333    0.00462963   8 t-inv F
  0.000000  0.333333 -0.333333    0.00462963   8 t-inv F
 -0.500000 -0.333333  0.000000    0.00462963   9 t-inv F
  0.000000  0.500000  0.333333    0.00462963   9 t-inv F
  0.000000 -0.500000 -0.333333    0.00462963   9 t-inv F
  0.333333  0.000000  0.500000    0.00462963   9 t-inv F
 -0.333333  0.000000 -0.500000    0.00462963   9 t-inv F
 -0.333333  0.500000  0.000000    0.00462963   9 t-inv F
  0.333333 -0.500000  0.000000    0.00462963   9 t-inv F
 -0.500000  0.000000  0.333333    0.00462963   9 t-inv F
  0.500000  0.000000 -0.333333    0.00462963   9 t-inv F
  0.000000  0.333333  0.500000    0.00462963   9 t-inv F
  0.000000 -0.333333 -0.500000    0.00462963   9 t-inv F
  0.000000  0.500000  0.500000    0.00462963  10 t-inv F
  0.500000  0.000000  0.500000    0.00462963  10 t-inv F
 -0.166667 -0.166667 -0.166667    0.00462963  11 t-inv F
 -0.166667  0.166667  0.166667    0.00462963  11 t-inv F
  0.166667 -0.166667 -0.166667    0.00462963  11 t-inv F
 -0.166667 -0.166667  0.166667    0.00462963  11 t-inv F
  0.166667  0.166667 -0.166667    0.00462963  11 t-inv F
  0.166667 -0.166667  0.166667    0.00462963  11 t-inv F
 -0.166667  0.166667 -0.166667    0.00462963  11 t-inv F
 -0.333333 -0.166667 -0.166667    0.00462963  12 t-inv F
  0.166667  0.333333  0.166667    0.00462963  12 t-inv F
 -0.166667 -0.333333 -0.166667    0.00462963  12 t-inv F
  0.166667  0.166667  0.333333    0.00462963  12 t-inv F
 -0.166667 -0.166667 -0.333333    0.00462963  12 t-inv F
 -0.166667  0.333333  0.166667    0.00462963  12 t-inv F
  0.166667 -0.333333 -0.166667    0.00462963  12 t-inv F
 -0.333333  0.166667  0.166667    0.00462963  12 t-inv F
  0.333333 -0.166667 -0.166667    0.00462963  12 t-inv F
 -0.166667  0.166667  0.333333    0.00462963  12 t-inv F
  0.166667 -0.166667 -0.333333    0.00462963  12 t-inv F
 -0.333333 -0.166667  0.166667    0.00462963  12 t-inv F
  0.333333  0.166667 -0.166667    0.00462963  12 t-inv F
 -0.166667 -0.333333  0.166667    0.00462963  12 t-inv F
  0.166667  0.333333 -0.166667    0.00462963  12 t-inv F
 -0.166667 -0.166667  0.333333    0.00462963  12 t-inv F
  0.166667  0.166667 -0.333333    0.00462963  12 t-inv F
  0.166667 -0.333333  0.166667    0.00462963  12 t-inv F
 -0.166667  0.333333 -0.166667    0.00462963  12 t-inv F
  0.333333 -0.166667  0.166667    0.00462963  12 t-inv F
 -0.333333  0.166667 -0.166667    0.00462963  12 t-inv F
  0.166667 -0.166667  0.333333    0.00462963  12 t-inv F
 -0.166667  0.166667 -0.333333    0.00462963  12 t-inv F
 -0.500000 -0.166667 -0.166667    0.00462963  13 t-inv F
  0.166667  0.500000  0.166667    0.00462963  13 t-inv F
 -0.166667 -0.500000 -0.166667    0.00462963  13 t-inv F
  0.166667  0.166667  0.500000    0.00462963  13 t-inv F
 -0.166667 -0.166667 -0.500000    0.00462963  13 t-inv F
 -0.166667  0.500000  0.166667    0.00462963  13 t-inv F
  0.166667 -0.500000 -0.166667    0.00462963  13 t-inv F
 -0.166667  0.166667  0.500000    0.00462963  13 t-inv F
  0.166667 -0.166667 -0.500000    0.00462963  13 t-inv F
 -0.500000 -0.166667  0.166667    0.00462963  13 t-inv F
  0.500000  0.166667 -0.166667    0.00462963  13 t-inv F
 -0.333333 -0.333333 -0.166667    0.00462963  14 t-inv F
  0.166667  0.333333  0.333333    0.00462963  14 t-inv F
 -0.166667 -0.333333 -0.333333    0.00462963  14 t-inv F
  0.333333  0.166667  0.333333    0.00462963  14 t-inv F
 -0.333333 -0.166667 -0.333333    0.00462963  14 t-inv F
 -0.333333  0.333333  0.166667    0.00462963  14 t-inv F
  0.333333 -0.333333 -0.166667    0.00462963  14 t-inv F
 -0.333333  0.166667  0.333333    0.00462963  14 t-inv F
  0.333333 -0.166667 -0.333333    0.00462963  14 t-inv F
 -0.166667  0.333333  0.333333    0.00462963  14 t-inv F
  0.166667 -0.333333 -0.333333    0.00462963  14 t-inv F
 -0.333333 -0.333333  0.166667    0.00462963  14 t-inv F
  0.333333  0.333333 -0.166667    0.00462963  14 t-inv F
 -0.166667 -0.333333  0.333333    0.00462963  14 t-inv F
  0.166667  0.333333 -0.333333    0.00462963  14 t-inv F
 -0.333333 -0.166667  0.333333    0.00462963  14 t-inv F
  0.333333  0.166667 -0.333333    0.00462963  14 t-inv F
  0.333333 -0.333333  0.166667    0.00462963  14 t-inv F
 -0.333333  0.333333 -0.166667    0.00462963  14 t-inv F
  0.333333 -0.166667  0.333333    0.00462963  14 t-inv F
 -0.333333  0.166667 -0.333333    0.00462963  14 t-inv F
  0.166667 -0.333333  0.333333    0.00462963  14 t-inv F
 -0.166667  0.333333 -0.333333    0.00462963  14 t-inv F
 -0.500000 -0.333333 -0.166667    0.00462963  15 t-inv F
  0.166667  0.500000  0.333333    0.00462963  15 t-inv F
 -0.166667 -0.500000 -0.333333    0.00462963  15 t-inv F
  0.333333  0.166667  0.500000    0.00462963  15 t-inv F
 -0.333333 -0.166667 -0.500000    0.00462963  15 t-inv F
 -0.333333  0.500000  0.166667    0.00462963  15 t-inv F
  0.333333 -0.500000 -0.166667    0.00462963  15 t-inv F
 -0.500000  0.166667  0.333333    0.00462963  15 t-inv F
  0.500000 -0.166667 -0.333333    0.00462963  15 t-inv F
 -0.166667  0.333333  0.500000    0.00462963  15 t-inv F
  0.166667 -0.333333 -0.500000    0.00462963  15 t-inv F
 -0.500000 -0.333333  0.166667    0.00462963  15 t-inv F
  0.500000  0.333333 -0.166667    0.00462963  15 t-inv F
 -0.166667 -0.500000  0.333333    0.00462963  15 t-inv F
  0.166667  0.500000 -0.333333    0.00462963  15 t-inv F
  0.333333 -0.500000  0.166667    0.00462963  15 t-inv F
 -0.333333  0.500000 -0.166667    0.00462963  15 t-inv F
  0.500000 -0.166667  0.333333    0.00462963  15 t-inv F
 -0.500000  0.166667 -0.333333    0.00462963  15 t-inv F
  0.333333 -0.166667 -0.500000    0.00462963  15 t-inv F
 -0.333333  0.166667  0.500000    0.00462963  15 t-inv F
  0.166667  0.333333 -0.500000    0.00462963  15 t-inv F
 -0.166667 -0.333333  0.500000    0.00462963  15 t-inv F
 -0.500000 -0.500000 -0.166667    0.00462963  16 t-inv F
  0.166667  0.500000  0.500000    0.00462963  16 t-inv F
 -0.166667 -0.500000 -0.500000    0.00462963  16 t-inv F
  0.500000  0.166667  0.500000    0.00462963  16 t-inv F
 -0.500000 -0.166667 -0.500000    0.00462963  16 t-inv F
 -0.333333 -0.333333 -0.333333    0.00462963  17 t-inv F
 -0.333333  0.333333  0.333333    0.00462963  17 t-inv F
  0.333333 -0.333333 -0.333333    0.00462963  17 t-inv F
 -0.333333 -0.333333  0.333333    0.00462963  17 t-inv F
  0.333333  0.333333 -0.333333    0.00462963  17 t-inv F
  0.333333 -0.333333  0.333333    0.00462963  17 t-inv F
 -0.333333  0.333333 -0.333333    0.00462963  17 t-inv F
 -0.500000 -0.333333 -0.333333    0.00462963  18 t-inv F
  0.333333  0.500000  0.333333    0.00462963  18 t-inv F
 -0.333333 -0.500000 -0.333333    0.00462963  18 t-inv F
  0.333333  0.333333  0.500000    0.00462963  18 t-inv F
 -0.333333 -0.333333 -0.500000    0.00462963  18 t-inv F
 -0.333333  0.500000  0.333333    0.00462963  18 t-inv F
  0.333333 -0.500000 -0.333333    0.00462963  18 t-inv F
 -0.333333  0.333333  0.500000    0.00462963  18 t-inv F
  0.333333 -0.333333 -0.500000    0.00462963  18 t-inv F
 -0.500000 -0.333333  0.333333    0.00462963  18 t-inv F
  0.500000  0.333333 -0.333333    0.00462963  18 t-inv F
 -0.500000 -0.500000 -0.333333    0.00462963  19 t-inv F
  0.333333  0.500000  0.500000    0.00462963  19 t-inv F
 -0.333333 -0.500000 -0.500000    0.00462963  19 t-inv F
  0.500000  0.333333  0.500000    0.00462963  19 t-inv F
 -0.500000 -0.333333 -0.500000    0.00462963  19 t-inv F


--------------------------------------------------------------------------------------------------------




 Dimension of arrays:
   k-points           NKPTS =     20   k-points in BZ     NKDIM =     20   number of bands    NBANDS=     36
   number of dos      NEDOS =    301   number of ions     NIONS =      5
   non local maximal  LDIM  =      6   non local SUM 2l+1 LMDIM =     18
   total plane-waves  NPLWV =  64000
   max r-space proj   IRMAX =      1   max aug-charges    IRDMAX=  63421
   dimension x,y,z NGX =    40 NGY =   40 NGZ =   40
   dimension x,y,z NGXF=    80 NGYF=   80 NGZF=   80
   support grid    NGXF=    80 NGYF=   80 NGZF=   80
   ions per type =               1   1   3
   NGX,Y,Z   is equivalent  to a cutoff of  16.68, 16.68, 16.68 a.u.
   NGXF,Y,Z  is equivalent  to a cutoff of  33.36, 33.36, 33.36 a.u.

 SYSTEM =  BaTiO3                                  
 POSCAR =  BaTiO3 (mp-2998)                        

 Startparameter for this run:
   NWRITE =      2    write-flag & timer
   PREC   = accura    normal or accurate (medium, high low for compatibility)
   ISTART =      0    job   : 0-new  1-cont  2-samecut
   ICHARG =      2    charge: 1-file 2-atom 10-const
   ISPIN  =      1    spin polarized calculation?
   LNONCOLLINEAR =      F non collinear calculations
   LSORBIT =      F    spin-orbit coupling
   INIWAV =      1    electr: 0-lowe 1-rand  2-diag
   LASPH  =      T    aspherical Exc in radial PAW
   METAGGA=      F    non-selfconsistent MetaGGA calc.

 Electronic Relaxation 1
   ENCUT  =  800.0 eV  58.80 Ry    7.67 a.u.   9.19  9.19  9.19*2*pi/ulx,y,z
   ENINI  =  800.0     initial cutoff
   ENAUG  =  605.4 eV  augmentation charge cutoff
   NELM   =     60;   NELMIN=  2; NELMDL= -5     # of ELM steps 
   EDIFF  = 0.1E-07   stopping-criterion for ELM
   LREAL  =      F    real-space projection
   NLSPLINE    = F    spline interpolate recip. space projectors
   LCOMPAT=      F    compatible to vasp.4.4
   GGA_COMPAT  = T    GGA compatible to vasp.4.4-vasp.4.6
   LMAXPAW     = -100 max onsite density
   LMAXMIX     =    2 max onsite mixed and CHGCAR
   VOSKOWN=      0    Vosko Wilk Nusair interpolation
   ROPT   =    0.00000   0.00000   0.00000
 Ionic relaxation
   EDIFFG = 0.1E-06   stopping-criterion for IOM
   NSW    =     97    number of steps for IOM
   NBLOCK =      1;   KBLOCK =     97    inner block; outer block 
   IBRION =      6    ionic relax: 0-MD 1-quasi-New 2-CG
   NFREE  =      2    steps in history (QN), initial steepest desc. (CG)
   ISIF   =      2    stress and relaxation
   IWAVPR =     11    prediction:  0-non 1-charg 2-wave 3-comb
   ISYM   =      2    0-nonsym 1-usesym 2-fastsym
   LCORR  =      T    Harris-Foulkes like correction to forces

   POTIM  = 0.0100    time-step for ionic-motion
   TEIN   =    0.0    initial temperature
   TEBEG  =    0.0;   TEEND  =   0.0 temperature during run
   SMASS  =  -3.00    Nose mass-parameter (am)
   estimated Nose-frequenzy (Omega)   =  0.10E-29 period in steps =****** mass=  -0.363E-27a.u.
   SCALEE = 1.0000    scale energy and forces
   NPACO  =    256;   APACO  = 16.0  distance and # of slots for P.C.
   PSTRESS=    0.0 pullay stress

  Mass of Ions in am
   POMASS = 137.33 47.88 16.00
  Ionic Valenz
   ZVAL   =  10.00 10.00  6.00
  Atomic Wigner-Seitz radii
   RWIGS  =  -1.00 -1.00 -1.00
  virtual crystal weights 
   VCA    =   1.00  1.00  1.00
   NELECT =      38.0000    total number of electrons
   NUPDOWN=      -1.0000    fix difference up-down

 DOS related values:
   EMIN   =  10.00;   EMAX   =-10.00  energy-range for DOS
   EFERMI =   0.00
   ISMEAR =     0;   SIGMA  =   0.01  broadening in eV -4-tet -1-fermi 0-gaus

 Electronic relaxation 2 (details)
   IALGO  =     38    algorithm
   LDIAG  =      T    sub-space diagonalisation (order eigenvalues)
   LSUBROT=      F    optimize rotation matrix (better conditioning)
   TURBO    =      0    0=normal 1=particle mesh
   IRESTART =      0    0=no restart 2=restart with 2 vectors
   NREBOOT  =      0    no. of reboots
   NMIN     =      0    reboot dimension
   EREF     =   0.00    reference energy to select bands
   IMIX   =      4    mixing-type and parameters
     AMIX     =   0.40;   BMIX     =  1.00
     AMIX_MAG =   1.60;   BMIX_MAG =  1.00
     AMIN     =   0.10
     WC   =   100.;   INIMIX=   1;  MIXPRE=   1;  MAXMIX= -45

 Intra band minimization:
   WEIMIN = 0.0010     energy-eigenvalue tresh-hold
   EBREAK =  0.69E-10  absolut break condition
   DEPER  =   0.30     relativ break condition  

   TIME   =   0.40     timestep for ELM

  volume/ion in A,a.u.               =      12.67        85.51
  Fermi-wavevector in a.u.,A,eV,Ry     =   1.380590  2.608936 25.933084  1.906028
  Thomas-Fermi vector in A             =   2.505453
 
 Write flags
   LWAVE        =      F    write WAVECAR
   LDOWNSAMPLE  =      F    k-point downsampling of WAVECAR
   LCHARG       =      F    write CHGCAR
   LVTOT        =      F    write LOCPOT, total local potential
   LVHAR        =      F    write LOCPOT, Hartree potential only
   LELF         =      F    write electronic localiz. function (ELF)
   LORBIT       =      0    0 simple, 1 ext, 2 COOP (PROOUT), +10 PAW based schemes


 Dipole corrections
   LMONO  =      F    monopole corrections only (constant potential shift)
   LDIPOL =      F    correct potential (dipole corrections)
   IDIPOL =      0    1-x, 2-y, 3-z, 4-all directions 
   EPSILON=  1.0000000 bulk dielectric constant

 Exchange correlation treatment:
   GGA     =    PS    GGA type
   LEXCH   =    14    internal setting for exchange type
   VOSKOWN=      0    Vosko Wilk Nusair interpolation
   LHFCALC =     F    Hartree Fock is set to
   LHFONE  =     F    Hartree Fock one center treatment
   AEXX    =    0.0000 exact exchange contribution

 Linear response parameters
   LEPSILON=     F    determine dielectric tensor
   LRPA    =     F    only Hartree local field effects (RPA)
   LNABLA  =     F    use nabla operator in PAW spheres
   LVEL    =     F    velocity operator in full k-point grid
   LINTERFAST=   F  fast interpolation
   KINTER  =     0    interpolate to denser k-point grid
   CSHIFT  =0.1000    complex shift for real part using Kramers Kronig
   OMEGAMAX=  -1.0    maximum frequency
   DEG_THRESHOLD= 0.2000000E-02 threshold for treating states as degnerate
   RTIME   =   -0.100 relaxation time in fs
  (WPLASMAI=    0.000 imaginary part of plasma frequency in eV, 0.658/RTIME)
   DFIELD  = 0.0000000 0.0000000 0.0000000 field for delta impulse in time
 
 Orbital magnetization related:
   ORBITALMAG=     F  switch on orbital magnetization
   LCHIMAG   =     F  perturbation theory with respect to B field
   DQ        =  0.001000  dq finite difference perturbation B field
   LLRAUG    =     F  two centre corrections for induced B field



--------------------------------------------------------------------------------------------------------


 finite differences with symmetry
 charge density and potential will be updated during run
 non-spin polarized calculation
 Variant of blocked Davidson
 Davidson routine will perform the subspace rotation
 perform sub-space diagonalisation
    after iterative eigenvector-optimisation
 modified Broyden-mixing scheme, WC =      100.0
 initial mixing is a Kerker type mixing with AMIX =  0.4000 and BMIX =      1.0000
 Hartree-type preconditioning will be used
 using additional bands           17
 reciprocal scheme for non local part
 use partial core corrections
 calculate Harris-corrections to forces 
   (improved forces if not selfconsistent)
 use gradient corrections 
 use of overlap-Matrix (Vanderbilt PP)
 Gauss-broadening in eV      SIGMA  =   0.01


--------------------------------------------------------------------------------------------------------


  energy-cutoff  :      800.00
  volume of cell :       63.36
      direct lattice vectors                 reciprocal lattice vectors
     3.986619027  0.000000000  0.000000000     0.250839118  0.000000000  0.000000000
     0.000000000  3.986619027  0.000000000     0.000000000  0.250839118  0.000000000
     0.000000000  0.000000000  3.986619027     0.000000000  0.000000000  0.250839118

  length of vectors
     3.986619027  3.986619027  3.986619027     0.250839118  0.250839118  0.250839118


 
 k-points in units of 2pi/SCALE and weight: Automatic 6x6x6                         
   0.00000000  0.00000000  0.00000000       0.005
   0.04180652  0.00000000  0.00000000       0.028
   0.08361304  0.00000000  0.00000000       0.028
   0.12541956  0.00000000  0.00000000       0.014
   0.04180652  0.04180652  0.00000000       0.056
   0.08361304  0.04180652  0.00000000       0.111
   0.12541956  0.04180652  0.00000000       0.056
   0.08361304  0.08361304  0.00000000       0.056
   0.12541956  0.08361304  0.00000000       0.056
   0.12541956  0.12541956  0.00000000       0.014
   0.04180652  0.04180652  0.04180652       0.037
   0.08361304  0.04180652  0.04180652       0.111
   0.12541956  0.04180652  0.04180652       0.056
   0.08361304  0.08361304  0.04180652       0.111
   0.12541956  0.08361304  0.04180652       0.111
   0.12541956  0.12541956  0.04180652       0.028
   0.08361304  0.08361304  0.08361304       0.037
   0.12541956  0.08361304  0.08361304       0.056
   0.12541956  0.12541956  0.08361304       0.028
   0.12541956  0.12541956  0.12541956       0.005
 
 k-points in reciprocal lattice and weights: Automatic 6x6x6                         
   0.00000000  0.00000000  0.00000000       0.005
   0.16666667  0.00000000  0.00000000       0.028
   0.33333333  0.00000000  0.00000000       0.028
   0.50000000  0.00000000  0.00000000       0.014
   0.16666667  0.16666667  0.00000000       0.056
   0.33333333  0.16666667  0.00000000       0.111
   0.50000000  0.16666667  0.00000000       0.056
   0.33333333  0.33333333  0.00000000       0.056
   0.50000000  0.33333333  0.00000000       0.056
   0.50000000  0.50000000  0.00000000       0.014
   0.16666667  0.16666667  0.16666667       0.037
   0.33333333  0.16666667  0.16666667       0.111
   0.50000000  0.16666667  0.16666667       0.056
   0.33333333  0.33333333  0.16666667       0.111
   0.50000000  0.33333333  0.16666667       0.111
   0.50000000  0.50000000  0.16666667       0.028
   0.33333333  0.33333333  0.33333333       0.037
   0.50000000  0.33333333  0.33333333       0.056
   0.50000000  0.50000000  0.33333333       0.028
   0.50000000  0.50000000  0.50000000       0.005
 
 position of ions in fractional coordinates (direct lattice) 
   0.00000000  0.00000000  0.00000000
   0.50000000  0.50000000  0.50000000
   0.00000000  0.50000000  0.50000000
   0.50000000  0.00000000  0.50000000
   0.50000000  0.50000000  0.00000000
 
 position of ions in cartesian coordinates  (Angst):
   0.00000000  0.00000000  0.00000000
   1.99330951  1.99330951  1.99330951
   0.00000000  1.99330951  1.99330951
   1.99330951  0.00000000  1.99330951
   1.99330951  1.99330951  0.00000000
 


--------------------------------------------------------------------------------------------------------


 k-point  1 :   0.0000 0.0000 0.0000  plane waves:    3239
 k-point  2 :   0.1667 0.0000 0.0000  plane waves:    3239
 k-point  3 :   0.3333 0.0000 0.0000  plane waves:    3242
 k-point  4 :   0.5000 0.0000 0.0000  plane waves:    3250
 k-point  5 :   0.1667 0.1667 0.0000  plane waves:    3239
 k-point  6 :   0.3333 0.1667 0.0000  plane waves:    3272
 k-point  7 :   0.5000 0.1667 0.0000  plane waves:    3268
 k-point  8 :   0.3333 0.3333 0.0000  plane waves:    3249
 k-point  9 :   0.5000 0.3333 0.0000  plane waves:    3264
 k-point 10 :   0.5000 0.5000 0.0000  plane waves:    3276
 k-point 11 :   0.1667 0.1667 0.1667  plane waves:    3224
 k-point 12 :   0.3333 0.1667 0.1667  plane waves:    3260
 k-point 13 :   0.5000 0.1667 0.1667  plane waves:    3268
 k-point 14 :   0.3333 0.3333 0.1667  plane waves:    3247
 k-point 15 :   0.5000 0.3333 0.1667  plane waves:    3256
 k-point 16 :   0.5000 0.5000 0.1667  plane waves:    3276
 k-point 17 :   0.3333 0.3333 0.3333  plane waves:    3253
 k-point 18 :   0.5000 0.3333 0.3333  plane waves:    3268
 k-point 19 :   0.5000 0.5000 0.3333  plane waves:    3248
 k-point 20 :   0.5000 0.5000 0.5000  plane waves:    3184

 maximum and minimum number of plane-waves per node :      3276     3184

 maximum number of plane-waves:      3276
 maximum index in each direction: 
   IXMAX=    9   IYMAX=    9   IZMAX=    9
   IXMIN=   -9   IYMIN=   -9   IZMIN=   -9


 serial   3D FFT for wavefunctions
 parallel 3D FFT for charge:
    minimum data exchange during FFTs selected (reduces bandwidth)


 total amount of memory used by VASP MPI-rank0    66801. kBytes
=======================================================================

   base      :      30000. kBytes
   nonl-proj :      28566. kBytes
   fftplans  :       1344. kBytes
   grid      :       4672. kBytes
   one-center:         77. kBytes
   wavefun   :       2142. kBytes
 
     INWAV:  cpu time    0.0000: real time    0.0000
 Broyden mixing: mesh for mixing (old mesh)
   NGX = 19   NGY = 19   NGZ = 19
  (NGX  = 80   NGY  = 80   NGZ  = 80)
  gives a total of   6859 points

 initial charge density was supplied:
 charge density of overlapping atoms calculated
 number of electron      38.0000000 magnetization 
 keeping initial charge density in first step


--------------------------------------------------------------------------------------------------------


 Maximum index for augmentation-charges         4439 (set IRDMAX)


--------------------------------------------------------------------------------------------------------


 First call to EWALD:  gamma=   0.445
 Maximum number of real-space cells 3x 3x 3
 Maximum number of reciprocal cells 3x 3x 3

    FEWALD:  cpu time    0.0013: real time    0.0014


--------------------------------------- Iteration      1(   1)  ---------------------------------------


    POTLOK:  cpu time    0.0316: real time    0.0335
    SETDIJ:  cpu time    0.1395: real time    0.1398
     EDDAV:  cpu time    0.3336: real time    0.3385
       DOS:  cpu time    0.0010: real time    0.0016
    --------------------------------------------
      LOOP:  cpu time    0.5058: real time    0.5135

 eigenvalue-minimisations  :  1440
 total energy-change (2. order) : 0.3064017E+03  (-0.2565589E+04)
 number of electron      38.0000000 magnetization 
 augmentation part       38.0000000 magnetization 

 Free energy of the ion-electron system (eV)
  ---------------------------------------------------
  alpha Z        PSCENC =       264.46143531
  Ewald energy   TEWEN  =     -2536.26425240
  -Hartree energ DENC   =      -626.43003480
  -exchange      EXHF   =         0.00000000
  -V(xc)+E(xc)   XCENC  =       147.70628456
  PAW double counting   =      2374.17991472    -2375.08656241
  entropy T*S    EENTRO =        -0.00059585
  eigenvalues    EBANDS =        23.34202558
  atomic energy  EATOM  =      3034.49351155
  Solvation  Ediel_sol  =         0.00000000
  ---------------------------------------------------
  free energy    TOTEN  =       306.40172626 eV

  energy without entropy =      306.40232211  energy(sigma->0) =      306.40202418


--------------------------------------------------------------------------------------------------------




--------------------------------------- Iteration      1(   2)  ---------------------------------------


     EDDAV:  cpu time    0.3845: real time    0.4255
       DOS:  cpu time    0.0003: real time    0.0003
    --------------------------------------------
      LOOP:  cpu time    0.3848: real time    0.4257

 eigenvalue-minimisations  :  1764
 total energy-change (2. order) :-0.3443412E+03  (-0.3193477E+03)
 number of electron      38.0000000 magnetization 
 augmentation part       38.0000000 magnetization 

 Free energy of the ion-electron system (eV)
  ---------------------------------------------------
  alpha Z        PSCENC =       264.46143531
  Ewald energy   TEWEN  =     -2536.26425240
  -Hartree energ DENC   =      -626.43003480
  -exchange      EXHF   =         0.00000000
  -V(xc)+E(xc)   XCENC  =       147.70628456
  PAW double counting   =      2374.17991472    -2375.08656241
  entropy T*S    EENTRO =        -0.00000000
  eigenvalues    EBANDS =      -320.99981219
  atomic energy  EATOM  =      3034.49351155
  Solvation  Ediel_sol  =         0.00000000
  ---------------------------------------------------
  free energy    TOTEN  =       -37.93951566 eV

  energy without entropy =      -37.93951566  energy(sigma->0) =      -37.93951566


--------------------------------------------------------------------------------------------------------




--------------------------------------- Iteration      1(   3)  ---------------------------------------


     EDDAV:  cpu time    0.3761: real time    0.3798
       DOS:  cpu time    0.0004: real time    0.0003
    --------------------------------------------
      LOOP:  cpu time    0.3765: real time    0.3801

 eigenvalue-minimisations  :  1692
 total energy-change (2. order) :-0.1419664E+02  (-0.1413347E+02)
 number of electron      38.0000000 magnetization 
 augmentation part       38.0000000 magnetization 

 Free energy of the ion-electron system (eV)
  ---------------------------------------------------
  alpha Z        PSCENC =       264.46143531
  Ewald energy   TEWEN  =     -2536.26425240
  -Hartree energ DENC   =      -626.43003480
  -exchange      EXHF   =         0.00000000
  -V(xc)+E(xc)   XCENC  =       147.70628456
  PAW double counting   =      2374.17991472    -2375.08656241
  entropy T*S    EENTRO =        -0.00000000
  eigenvalues    EBANDS =      -335.19644862
  atomic energy  EATOM  =      3034.49351155
  Solvation  Ediel_sol  =         0.00000000
  ---------------------------------------------------
  free energy    TOTEN  =       -52.13615210 eV

  energy without entropy =      -52.13615210  energy(sigma->0) =      -52.13615210


--------------------------------------------------------------------------------------------------------




--------------------------------------- Iteration      1(   4)  ---------------------------------------


     EDDAV:  cpu time    0.3813: real time    0.3852
       DOS:  cpu time    0.0000: real time    0.0003
    --------------------------------------------
      LOOP:  cpu time    0.3813: real time    0.3855

 eigenvalue-minimisations  :  1764
 total energy-change (2. order) :-0.1495857E+00  (-0.1495539E+00)
 number of electron      38.0000000 magnetization 
 augmentation part       38.0000000 magnetization 

 Free energy of the ion-electron system (eV)
  ---------------------------------------------------
  alpha Z        PSCENC =       264.46143531
  Ewald energy   TEWEN  =     -2536.26425240
  -Hartree energ DENC   =      -626.43003480
  -exchange      EXHF   =         0.00000000
  -V(xc)+E(xc)   XCENC  =       147.70628456
  PAW double counting   =      2374.17991472    -2375.08656241
  entropy T*S    EENTRO =        -0.00000000
  eigenvalues    EBANDS =      -335.34603436
  atomic energy  EATOM  =      3034.49351155
  Solvation  Ediel_sol  =         0.00000000
  ---------------------------------------------------
  free energy    TOTEN  =       -52.28573783 eV

  energy without entropy =      -52.28573783  energy(sigma->0) =      -52.28573783


--------------------------------------------------------------------------------------------------------




--------------------------------------- Iteration      1(   5)  ---------------------------------------


     EDDAV:  cpu time    0.4291: real time    0.4296
       DOS:  cpu time    0.0003: real time    0.0003
    CHARGE:  cpu time    0.0367: real time    0.0373
    MIXING:  cpu time    0.0028: real time    0.0029
    --------------------------------------------
      LOOP:  cpu time    0.4689: real time    0.4702

 eigenvalue-minimisations  :  1782
 total energy-change (2. order) :-0.2355890E-02  (-0.2355822E-02)
 number of electron      38.0000001 magnetization 
 augmentation part        4.6855014 magnetization 

 Broyden mixing:
  rms(total) = 0.28148E+01    rms(broyden)= 0.28147E+01
  rms(prec ) = 0.51776E+01
  weight for this iteration     100.00

 Free energy of the ion-electron system (eV)
  ---------------------------------------------------
  alpha Z        PSCENC =       264.46143531
  Ewald energy   TEWEN  =     -2536.26425240
  -Hartree energ DENC   =      -626.43003480
  -exchange      EXHF   =         0.00000000
  -V(xc)+E(xc)   XCENC  =       147.70628456
  PAW double counting   =      2374.17991472    -2375.08656241
  entropy T*S    EENTRO =        -0.00000000
  eigenvalues    EBANDS =      -335.34839025
  atomic energy  EATOM  =      3034.49351155
  Solvation  Ediel_sol  =         0.00000000
  ---------------------------------------------------
  free energy    TOTEN  =       -52.28809372 eV

  energy without entropy =      -52.28809372  energy(sigma->0) =      -52.28809372


--------------------------------------------------------------------------------------------------------




--------------------------------------- Iteration      1(   6)  ---------------------------------------


    POTLOK:  cpu time    0.0205: real time    0.0250
    SETDIJ:  cpu time    0.1338: real time    0.1337
     EDDAV:  cpu time    0.3689: real time    0.3694
       DOS:  cpu time    0.0004: real time    0.0003
    CHARGE:  cpu time    0.0295: real time    0.0297
    MIXING:  cpu time    0.0015: real time    0.0015
    --------------------------------------------
      LOOP:  cpu time    0.5546: real time    0.5596

 eigenvalue-minimisations  :  1728
 total energy-change (2. order) : 0.9695212E+01  (-0.2145572E+01)
 number of electron      38.0000000 magnetization 
 augmentation part        4.7921287 magnetization 

 Broyden mixing:
  rms(total) = 0.10020E+01    rms(broyden)= 0.10020E+01
  rms(prec ) = 0.16795E+01
  weight for this iteration     100.00

 eigenvalues of (default mixing * dielectric matrix)
  average eigenvalue GAMMA=   0.9011
  0.9011

 Free energy of the ion-electron system (eV)
  ---------------------------------------------------
  alpha Z        PSCENC =       264.46143531
  Ewald energy   TEWEN  =     -2536.26425240
  -Hartree energ DENC   =      -639.13848712
  -exchange      EXHF   =         0.00000000
  -V(xc)+E(xc)   XCENC  =       149.80909259
  PAW double counting   =      2891.02216782    -2896.48498247
  entropy T*S    EENTRO =        -0.00000000
  eigenvalues    EBANDS =      -310.49136699
  atomic energy  EATOM  =      3034.49351155
  Solvation  Ediel_sol  =         0.00000000
  ---------------------------------------------------
  free energy    TOTEN  =       -42.59288171 eV

  energy without entropy =      -42.59288171  energy(sigma->0) =      -42.59288171


--------------------------------------------------------------------------------------------------------




--------------------------------------- Iteration      1(   7)  ---------------------------------------


    POTLOK:  cpu time    0.0159: real time    0.0198
    SETDIJ:  cpu time    0.1366: real time    0.1364
     EDDAV:  cpu time    0.3828: real time    0.3828
       DOS:  cpu time    0.0003: real time    0.0003
    CHARGE:  cpu time    0.0288: real time    0.0287
    MIXING:  cpu time    0.0013: real time    0.0013
    --------------------------------------------
      LOOP:  cpu time    0.5655: real time    0.5693

 eigenvalue-minimisations  :  1836
 total energy-change (2. order) : 0.4784765E+00  (-0.2732877E+00)
 number of electron      38.0000000 magnetization 
 augmentation part        4.6522089 magnetization 

 Broyden mixing:
  rms(total) = 0.80536E+00    rms(broyden)= 0.80536E+00
  rms(prec ) = 0.10886E+01
  weight for this iteration     100.00

 eigenvalues of (default mixing * dielectric matrix)
  average eigenvalue GAMMA=   1.8760
  0.7000  3.0520

 Free energy of the ion-electron system (eV)
  ---------------------------------------------------
  alpha Z        PSCENC =       264.46143531
  Ewald energy   TEWEN  =     -2536.26425240
  -Hartree energ DENC   =      -628.57728193
  -exchange      EXHF   =         0.00000000
  -V(xc)+E(xc)   XCENC  =       148.88362717
  PAW double counting   =      3168.53849025    -3174.52820682
  entropy T*S    EENTRO =        -0.00000000
  eigenvalues    EBANDS =      -319.12172838
  atomic energy  EATOM  =      3034.49351155
  Solvation  Ediel_sol  =         0.00000000
  ---------------------------------------------------
  free energy    TOTEN  =       -42.11440525 eV

  energy without entropy =      -42.11440525  energy(sigma->0) =      -42.11440525


--------------------------------------------------------------------------------------------------------




--------------------------------------- Iteration      1(   8)  ---------------------------------------


    POTLOK:  cpu time    0.0156: real time    0.0197
    SETDIJ:  cpu time    0.1366: real time    0.1366
     EDDAV:  cpu time    0.3774: real time    0.3773
       DOS:  cpu time    0.0003: real time    0.0003
    CHARGE:  cpu time    0.0287: real time    0.0286
    MIXING:  cpu time    0.0011: real time    0.0012
    --------------------------------------------
      LOOP:  cpu time    0.5598: real time    0.5637

 eigenvalue-minimisations  :  1692
 total energy-change (2. order) :-0.3249704E+00  (-0.1328841E+00)
 number of electron      38.0000000 magnetization 
 augmentation part        5.0449291 magnetization 

 Broyden mixing:
  rms(total) = 0.80760E+00    rms(broyden)= 0.80760E+00
  rms(prec ) = 0.16527E+01
  weight for this iteration     100.00

 eigenvalues of (default mixing * dielectric matrix)
  average eigenvalue GAMMA=   1.2316
  2.4011  0.8265  0.4671

 Free energy of the ion-electron system (eV)
  ---------------------------------------------------
  alpha Z        PSCENC =       264.46143531
  Ewald energy   TEWEN  =     -2536.26425240
  -Hartree energ DENC   =      -612.90555099
  -exchange      EXHF   =         0.00000000
  -V(xc)+E(xc)   XCENC  =       148.27774228
  PAW double counting   =      3925.70445523    -3934.60954798
  entropy T*S    EENTRO =        -0.00000000
  eigenvalues    EBANDS =      -331.59716865
  atomic energy  EATOM  =      3034.49351155
  Solvation  Ediel_sol  =         0.00000000
  ---------------------------------------------------
  free energy    TOTEN  =       -42.43937565 eV

  energy without entropy =      -42.43937565  energy(sigma->0) =      -42.43937565


--------------------------------------------------------------------------------------------------------




--------------------------------------- Iteration      1(   9)  ---------------------------------------


    POTLOK:  cpu time    0.0159: real time    0.0195
    SETDIJ:  cpu time    0.1367: real time    0.1367
     EDDAV:  cpu time    0.3707: real time    0.3705
       DOS:  cpu time    0.0009: real time    0.0003
    CHARGE:  cpu time    0.0281: real time    0.0287
    MIXING:  cpu time    0.0013: real time    0.0012
    --------------------------------------------
      LOOP:  cpu time    0.5536: real time    0.5569

 eigenvalue-minimisations  :  1728
 total energy-change (2. order) : 0.5012596E+00  (-0.3402524E-01)
 number of electron      38.0000000 magnetization 
 augmentation part        4.8389179 magnetization 

 Broyden mixing:
  rms(total) = 0.22827E+00    rms(broyden)= 0.22827E+00
  rms(prec ) = 0.40269E+00
  weight for this iteration     100.00

 eigenvalues of (default mixing * dielectric matrix)
  average eigenvalue GAMMA=   1.1197
  2.3876  0.7666  0.7666  0.5581

 Free energy of the ion-electron system (eV)
  ---------------------------------------------------
  alpha Z        PSCENC =       264.46143531
  Ewald energy   TEWEN  =     -2536.26425240
  -Hartree energ DENC   =      -617.75737062
  -exchange      EXHF   =         0.00000000
  -V(xc)+E(xc)   XCENC  =       148.41675642
  PAW double counting   =      3834.12342067    -3842.58697385
  entropy T*S    EENTRO =        -0.00000000
  eigenvalues    EBANDS =      -326.82464312
  atomic energy  EATOM  =      3034.49351155
  Solvation  Ediel_sol  =         0.00000000
  ---------------------------------------------------
  free energy    TOTEN  =       -41.93811605 eV

  energy without entropy =      -41.93811605  energy(sigma->0) =      -41.93811605


--------------------------------------------------------------------------------------------------------




--------------------------------------- Iteration      1(  10)  ---------------------------------------


    POTLOK:  cpu time    0.0156: real time    0.0195
    SETDIJ:  cpu time    0.1367: real time    0.1366
     EDDAV:  cpu time    0.4407: real time    0.4406
       DOS:  cpu time    0.0003: real time    0.0003
    CHARGE:  cpu time    0.0287: real time    0.0287
    MIXING:  cpu time    0.0013: real time    0.0012
    --------------------------------------------
      LOOP:  cpu time    0.6234: real time    0.6270

 eigenvalue-minimisations  :  2124
 total energy-change (2. order) : 0.3035968E-01  (-0.2597442E-02)
 number of electron      38.0000000 magnetization 
 augmentation part        4.7993928 magnetization 

 Broyden mixing:
  rms(total) = 0.89618E-01    rms(broyden)= 0.89618E-01
  rms(prec ) = 0.18184E+00
  weight for this iteration     100.00

 eigenvalues of (default mixing * dielectric matrix)
  average eigenvalue GAMMA=   1.2804
  2.6342  1.2307  1.2307  0.8220  0.4843

 Free energy of the ion-electron system (eV)
  ---------------------------------------------------
  alpha Z        PSCENC =       264.46143531
  Ewald energy   TEWEN  =     -2536.26425240
  -Hartree energ DENC   =      -620.50456860
  -exchange      EXHF   =         0.00000000
  -V(xc)+E(xc)   XCENC  =       148.55617398
  PAW double counting   =      3786.18598509    -3794.47623075
  entropy T*S    EENTRO =        -0.00000000
  eigenvalues    EBANDS =      -324.35981054
  atomic energy  EATOM  =      3034.49351155
  Solvation  Ediel_sol  =         0.00000000
  ---------------------------------------------------
  free energy    TOTEN  =       -41.90775638 eV

  energy without entropy =      -41.90775638  energy(sigma->0) =      -41.90775638


--------------------------------------------------------------------------------------------------------




--------------------------------------- Iteration      1(  11)  ---------------------------------------


    POTLOK:  cpu time    0.0305: real time    0.0359
    SETDIJ:  cpu time    0.1384: real time    0.1395
     EDDAV:  cpu time    0.4101: real time    0.4121
       DOS:  cpu time    0.0011: real time    0.0019
    CHARGE:  cpu time    0.0297: real time    0.0302
    MIXING:  cpu time    0.0028: real time    0.0033
    --------------------------------------------
      LOOP:  cpu time    0.6127: real time    0.6229

 eigenvalue-minimisations  :  1926
 total energy-change (2. order) : 0.7174937E-02  (-0.4540288E-03)
 number of electron      38.0000000 magnetization 
 augmentation part        4.7798286 magnetization 

 Broyden mixing:
  rms(total) = 0.36696E-01    rms(broyden)= 0.36696E-01
  rms(prec ) = 0.74243E-01
  weight for this iteration     100.00

 eigenvalues of (default mixing * dielectric matrix)
  average eigenvalue GAMMA=   1.3176
  2.3718  1.9726  1.1074  1.1074  0.8570  0.4894

 Free energy of the ion-electron system (eV)
  ---------------------------------------------------
  alpha Z        PSCENC =       264.46143531
  Ewald energy   TEWEN  =     -2536.26425240
  -Hartree energ DENC   =      -621.74090390
  -exchange      EXHF   =         0.00000000
  -V(xc)+E(xc)   XCENC  =       148.61690575
  PAW double counting   =      3802.88347679    -3811.18479100
  entropy T*S    EENTRO =        -0.00000000
  eigenvalues    EBANDS =      -323.16596355
  atomic energy  EATOM  =      3034.49351155
  Solvation  Ediel_sol  =         0.00000000
  ---------------------------------------------------
  free energy    TOTEN  =       -41.90058144 eV

  energy without entropy =      -41.90058144  energy(sigma->0) =      -41.90058144


--------------------------------------------------------------------------------------------------------




--------------------------------------- Iteration      1(  12)  ---------------------------------------


    POTLOK:  cpu time    0.0167: real time    0.0206
    SETDIJ:  cpu time    0.1367: real time    0.1366
     EDDAV:  cpu time    0.3834: real time    0.3831
       DOS:  cpu time    0.0003: real time    0.0003
    CHARGE:  cpu time    0.0286: real time    0.0286
    MIXING:  cpu time    0.0013: real time    0.0013
    --------------------------------------------
      LOOP:  cpu time    0.5669: real time    0.5702

 eigenvalue-minimisations  :  1710
 total energy-change (2. order) : 0.1365168E-02  (-0.1882604E-03)
 number of electron      38.0000000 magnetization 
 augmentation part        4.7674005 magnetization 

 Broyden mixing:
  rms(total) = 0.66134E-02    rms(broyden)= 0.66132E-02
  rms(prec ) = 0.10267E-01
  weight for this iteration     100.00

 eigenvalues of (default mixing * dielectric matrix)
  average eigenvalue GAMMA=   1.5012
  2.6588  2.6588  1.7071  0.4897  0.8489  1.0724  1.0724

 Free energy of the ion-electron system (eV)
  ---------------------------------------------------
  alpha Z        PSCENC =       264.46143531
  Ewald energy   TEWEN  =     -2536.26425240
  -Hartree energ DENC   =      -622.34714384
  -exchange      EXHF   =         0.00000000
  -V(xc)+E(xc)   XCENC  =       148.64130005
  PAW double counting   =      3794.79441887    -3803.03794903
  entropy T*S    EENTRO =        -0.00000000
  eigenvalues    EBANDS =      -322.64053678
  atomic energy  EATOM  =      3034.49351155
  Solvation  Ediel_sol  =         0.00000000
  ---------------------------------------------------
  free energy    TOTEN  =       -41.89921627 eV

  energy without entropy =      -41.89921627  energy(sigma->0) =      -41.89921627


--------------------------------------------------------------------------------------------------------




--------------------------------------- Iteration      1(  13)  ---------------------------------------


    POTLOK:  cpu time    0.0189: real time    0.0195
    SETDIJ:  cpu time    0.1370: real time    0.1369
     EDDAV:  cpu time    0.3953: real time    0.3952
       DOS:  cpu time    0.0009: real time    0.0003
    CHARGE:  cpu time    0.0280: real time    0.0286
    MIXING:  cpu time    0.0013: real time    0.0013
    --------------------------------------------
      LOOP:  cpu time    0.5814: real time    0.5819

 eigenvalue-minimisations  :  1728
 total energy-change (2. order) :-0.9175862E-05  (-0.2617208E-04)
 number of electron      38.0000000 magnetization 
 augmentation part        4.7689847 magnetization 

 Broyden mixing:
  rms(total) = 0.87608E-03    rms(broyden)= 0.87605E-03
  rms(prec ) = 0.11812E-02
  weight for this iteration     100.00

 eigenvalues of (default mixing * dielectric matrix)
  average eigenvalue GAMMA=   1.3984
  2.7262  2.7262  1.6191  1.0984  1.0984  0.8542  0.4898  0.5749

 Free energy of the ion-electron system (eV)
  ---------------------------------------------------
  alpha Z        PSCENC =       264.46143531
  Ewald energy   TEWEN  =     -2536.26425240
  -Hartree energ DENC   =      -622.34718269
  -exchange      EXHF   =         0.00000000
  -V(xc)+E(xc)   XCENC  =       148.64312313
  PAW double counting   =      3794.95815001    -3803.19845185
  entropy T*S    EENTRO =        -0.00000000
  eigenvalues    EBANDS =      -322.64555851
  atomic energy  EATOM  =      3034.49351155
  Solvation  Ediel_sol  =         0.00000000
  ---------------------------------------------------
  free energy    TOTEN  =       -41.89922545 eV

  energy without entropy =      -41.89922545  energy(sigma->0) =      -41.89922545


--------------------------------------------------------------------------------------------------------




--------------------------------------- Iteration      1(  14)  ---------------------------------------


    POTLOK:  cpu time    0.0157: real time    0.0197
    SETDIJ:  cpu time    0.1370: real time    0.1368
     EDDAV:  cpu time    0.4174: real time    0.4173
       DOS:  cpu time    0.0003: real time    0.0003
    CHARGE:  cpu time    0.0288: real time    0.0288
    MIXING:  cpu time    0.0014: real time    0.0013
    --------------------------------------------
      LOOP:  cpu time    0.6006: real time    0.6042

 eigenvalue-minimisations  :  1926
 total energy-change (2. order) :-0.1233674E-05  (-0.5790612E-06)
 number of electron      38.0000000 magnetization 
 augmentation part        4.7687630 magnetization 

 Broyden mixing:
  rms(total) = 0.61700E-03    rms(broyden)= 0.61700E-03
  rms(prec ) = 0.10159E-02
  weight for this iteration     100.00

 eigenvalues of (default mixing * dielectric matrix)
  average eigenvalue GAMMA=   1.4471
  2.7448  2.2220  2.2220  0.4897  0.8527  1.0254  1.1550  1.1550  1.1576

 Free energy of the ion-electron system (eV)
  ---------------------------------------------------
  alpha Z        PSCENC =       264.46143531
  Ewald energy   TEWEN  =     -2536.26425240
  -Hartree energ DENC   =      -622.37175139
  -exchange      EXHF   =         0.00000000
  -V(xc)+E(xc)   XCENC  =       148.64470774
  PAW double counting   =      3794.19114642    -3802.43078075
  entropy T*S    EENTRO =        -0.00000000
  eigenvalues    EBANDS =      -322.62324316
  atomic energy  EATOM  =      3034.49351155
  Solvation  Ediel_sol  =         0.00000000
  ---------------------------------------------------
  free energy    TOTEN  =       -41.89922668 eV

  energy without entropy =      -41.89922668  energy(sigma->0) =      -41.89922668


--------------------------------------------------------------------------------------------------------




--------------------------------------- Iteration      1(  15)  ---------------------------------------


    POTLOK:  cpu time    0.0158: real time    0.0197
    SETDIJ:  cpu time    0.1366: real time    0.1368
     EDDAV:  cpu time    0.3939: real time    0.3936
       DOS:  cpu time    0.0003: real time    0.0003
    CHARGE:  cpu time    0.0287: real time    0.0287
    MIXING:  cpu time    0.0014: real time    0.0014
    --------------------------------------------
      LOOP:  cpu time    0.5767: real time    0.5804

 eigenvalue-minimisations  :  1836
 total energy-change (2. order) : 0.3672540E-07  (-0.2120722E-06)
 number of electron      38.0000000 magnetization 
 augmentation part        4.7689601 magnetization 

 Broyden mixing:
  rms(total) = 0.52227E-03    rms(broyden)= 0.52226E-03
  rms(prec ) = 0.60598E-03
  weight for this iteration     100.00

 eigenvalues of (default mixing * dielectric matrix)
  average eigenvalue GAMMA=   1.4904
  2.9759  2.4714  2.4714  1.6356  0.4897  1.0808  1.0808  1.0597  0.8265  0.8127

 Free energy of the ion-electron system (eV)
  ---------------------------------------------------
  alpha Z        PSCENC =       264.46143531
  Ewald energy   TEWEN  =     -2536.26425240
  -Hartree energ DENC   =      -622.34607215
  -exchange      EXHF   =         0.00000000
  -V(xc)+E(xc)   XCENC  =       148.64322058
  PAW double counting   =      3794.85802795    -3803.10212439
  entropy T*S    EENTRO =        -0.00000000
  eigenvalues    EBANDS =      -322.64297309
  atomic energy  EATOM  =      3034.49351155
  Solvation  Ediel_sol  =         0.00000000
  ---------------------------------------------------
  free energy    TOTEN  =       -41.89922664 eV

  energy without entropy =      -41.89922664  energy(sigma->0) =      -41.89922664


--------------------------------------------------------------------------------------------------------




[...]
          X           Y           Z          XY          YZ          ZX
  --------------------------------------------------------------------------------
  x     0.00000     0.00000     0.00000     0.00000     0.00000     0.00000
  y     0.00000     0.00000     0.00000     0.00000     0.00000     0.00000
  z     0.00000     0.00000     0.00000     0.00000     0.00000     0.00000

 INTERNAL STRAIN TENSOR FOR ION    5 for displacements in x,y,z  (eV/Angst):
          X           Y           Z          XY          YZ          ZX
  --------------------------------------------------------------------------------
  x     0.00000     0.00000     0.00000     0.00000     0.00000     0.00000
  y     0.00000     0.00000     0.00000     0.00000     0.00000     0.00000
  z     0.00000     0.00000     0.00000     0.00000     0.00000     0.00000


--------------------------------------------------------------------------------------------------------


 
 Eigenvectors and eigenvalues of the dynamical matrix
 ----------------------------------------------------
 
 
   1 f  =   13.900729 THz    87.340853 2PiTHz  463.678380 cm-1    57.488813 meV
             X         Y         Z           dx          dy          dz
      0.000000  0.000000  0.000000    -0.000166   -0.009699    0.000000  
      1.993310  1.993310  1.993310     0.003068    0.178730    0.000000  
      0.000000  1.993310  1.993310     0.011990   -0.489812   -0.000000  
      1.993310  0.000000  1.993310    -0.008408    0.698452   -0.000000  
      1.993310  1.993310  0.000000    -0.008408   -0.489812    0.000000  
 
   2 f  =   13.900729 THz    87.340853 2PiTHz  463.678380 cm-1    57.488813 meV
             X         Y         Z           dx          dy          dz
      0.000000  0.000000  0.000000     0.000000    0.000000   -0.009700  
      1.993310  1.993310  1.993310    -0.000000   -0.000000    0.178756  
      0.000000  1.993310  1.993310    -0.000000    0.000000   -0.489884  
      1.993310  0.000000  1.993310     0.000000   -0.000000   -0.489884  
      1.993310  1.993310  0.000000     0.000000    0.000000    0.698555  
 
   3 f  =   13.900729 THz    87.340853 2PiTHz  463.678380 cm-1    57.488813 meV
             X         Y         Z           dx          dy          dz
      0.000000  0.000000  0.000000     0.009699   -0.000166    0.000000  
      1.993310  1.993310  1.993310    -0.178730    0.003068    0.000000  
      0.000000  1.993310  1.993310    -0.698452   -0.008408    0.000000  
      1.993310  0.000000  1.993310     0.489812    0.011990   -0.000000  
      1.993310  1.993310  0.000000     0.489812   -0.008408    0.000000  
 
   4 f  =    8.555065 THz    53.753061 2PiTHz  285.366257 cm-1    35.380919 meV
             X         Y         Z           dx          dy          dz
      0.000000  0.000000  0.000000    -0.000000    0.000000    0.000000  
      1.993310  1.993310  1.993310     0.000000   -0.000000    0.000000  
      0.000000  1.993310  1.993310     0.000000    0.308401   -0.498457  
      1.993310  0.000000  1.993310    -0.395512   -0.000000    0.498457  
      1.993310  1.993310  0.000000     0.395512   -0.308401    0.000000  
 
   5 f  =    8.555065 THz    53.753061 2PiTHz  285.366257 cm-1    35.380919 meV
             X         Y         Z           dx          dy          dz
      0.000000  0.000000  0.000000    -0.000000    0.000000   -0.000000  
      1.993310  1.993310  1.993310     0.000000   -0.000000   -0.000000  
      0.000000  1.993310  1.993310     0.000000   -0.470905   -0.474384  
      1.993310  0.000000  1.993310     0.230669   -0.000000    0.474384  
      1.993310  1.993310  0.000000    -0.230669    0.470905   -0.000000  
 
   6 f  =    8.555065 THz    53.753061 2PiTHz  285.366257 cm-1    35.380919 meV
             X         Y         Z           dx          dy          dz
      0.000000  0.000000  0.000000    -0.000000   -0.000000   -0.000000  
      1.993310  1.993310  1.993310    -0.000000   -0.000000    0.000000  
      0.000000  1.993310  1.993310    -0.000000   -0.427945    0.162790  
      1.993310  0.000000  1.993310    -0.538853   -0.000000   -0.162790  
      1.993310  1.993310  0.000000     0.538853    0.427945   -0.000000  
 
   7 f  =    5.321956 THz    33.438835 2PiTHz  177.521337 cm-1    22.009849 meV
             X         Y         Z           dx          dy          dz
      0.000000  0.000000  0.000000    -0.440709   -0.465006   -0.015670  
      1.993310  1.993310  1.993310     0.377497    0.398309    0.013422  
      0.000000  1.993310  1.993310     0.202951    0.229952    0.007749  
      1.993310  0.000000  1.993310     0.217937    0.214140    0.007749  
      1.993310  1.993310  0.000000     0.217937    0.229952    0.007216  
 
   8 f  =    5.321956 THz    33.438835 2PiTHz  177.521337 cm-1    22.009849 meV
             X         Y         Z           dx          dy          dz
      0.000000  0.000000  0.000000     0.010882    0.011276   -0.640667  
      1.993310  1.993310  1.993310    -0.009321   -0.009659    0.548775  
      0.000000  1.993310  1.993310    -0.005011   -0.005576    0.316819  
      1.993310  0.000000  1.993310    -0.005381   -0.005193    0.316819  
      1.993310  1.993310  0.000000    -0.005381   -0.005576    0.295034  
 
   9 f  =    5.321956 THz    33.438835 2PiTHz  177.521337 cm-1    22.009849 meV
             X         Y         Z           dx          dy          dz
      0.000000  0.000000  0.000000    -0.465142    0.440843   -0.000141  
      1.993310  1.993310  1.993310     0.398426   -0.377612    0.000121  
      0.000000  1.993310  1.993310     0.214203   -0.218003    0.000070  
      1.993310  0.000000  1.993310     0.230019   -0.203013    0.000070  
      1.993310  1.993310  0.000000     0.230019   -0.218003    0.000065  
 
  10 f/i=    0.001609 THz     0.010108 2PiTHz    0.053662 cm-1     0.006653 meV
             X         Y         Z           dx          dy          dz
      0.000000  0.000000  0.000000     0.000947    0.077261   -0.763648  
      1.993310  1.993310  1.993310     0.000558    0.045583   -0.450535  
      0.000000  1.993310  1.993310     0.000323    0.026359   -0.260528  
      1.993310  0.000000  1.993310     0.000323    0.026378   -0.260528  
      1.993310  1.993310  0.000000     0.000323    0.026359   -0.260722  
 
  11 f/i=    0.001609 THz     0.010108 2PiTHz    0.053662 cm-1     0.006653 meV
             X         Y         Z           dx          dy          dz
      0.000000  0.000000  0.000000     0.739512   -0.204594   -0.019783  
      1.993310  1.993310  1.993310     0.436296   -0.120706   -0.011671  
      0.000000  1.993310  1.993310     0.252482   -0.069800   -0.006749  
      1.993310  0.000000  1.993310     0.252294   -0.069852   -0.006749  
      1.993310  1.993310  0.000000     0.252294   -0.069800   -0.006754  
 
  12 f/i=    0.001609 THz     0.010108 2PiTHz    0.053662 cm-1     0.006653 meV
             X         Y         Z           dx          dy          dz
      0.000000  0.000000  0.000000    -0.205546   -0.735731   -0.074692  
      1.993310  1.993310  1.993310    -0.121268   -0.434065   -0.044067  
      0.000000  1.993310  1.993310    -0.070177   -0.251004   -0.025482  
      1.993310  0.000000  1.993310    -0.070125   -0.251191   -0.025482  
      1.993310  1.993310  0.000000    -0.070125   -0.251004   -0.025501  
 
  13 f/i=    6.135607 THz    38.551156 2PiTHz  204.661814 cm-1    25.374840 meV
             X         Y         Z           dx          dy          dz
      0.000000  0.000000  0.000000    -0.000143    0.000951   -0.008710  
      1.993310  1.993310  1.993310    -0.011088    0.073759   -0.675344  
      0.000000  1.993310  1.993310     0.009741   -0.032749    0.299855  
      1.993310  0.000000  1.993310     0.004923   -0.064794    0.299855  
      1.993310  1.993310  0.000000     0.004923   -0.032749    0.593261  
 
  14 f/i=    6.135607 THz    38.551156 2PiTHz  204.661814 cm-1    25.374840 meV
             X         Y         Z           dx          dy          dz
      0.000000  0.000000  0.000000    -0.008711   -0.000953    0.000039  
      1.993310  1.993310  1.993310    -0.675416   -0.073867    0.003022  
      0.000000  1.993310  1.993310     0.593325    0.032797   -0.001342  
      1.993310  0.000000  1.993310     0.299887    0.064889   -0.001342  
      1.993310  1.993310  0.000000     0.299887    0.032797   -0.002655  
 
  15 f/i=    6.135607 THz    38.551156 2PiTHz  204.661814 cm-1    25.374840 meV
             X         Y         Z           dx          dy          dz
      0.000000  0.000000  0.000000     0.000943   -0.008659   -0.000961  
      1.993310  1.993310  1.993310     0.073092   -0.671383   -0.074526  
      0.000000  1.993310  1.993310    -0.064208    0.298096    0.033090  
      1.993310  0.000000  1.993310    -0.032453    0.589782    0.033090  
      1.993310  1.993310  0.000000    -0.032453    0.298096    0.065468  
 

 ELASTIC MODULI CONTR FROM IONIC RELAXATION (kBar)
 Direction    XX          YY          ZZ          XY          YZ          ZX
 --------------------------------------------------------------------------------
 XX           0.0000      0.0000      0.0000      0.0000      0.0000      0.0000
 YY           0.0000      0.0000      0.0000      0.0000      0.0000      0.0000
 ZZ           0.0000      0.0000      0.0000      0.0000      0.0000      0.0000
 XY           0.0000      0.0000      0.0000      0.0000      0.0000      0.0000
 YZ           0.0000      0.0000      0.0000      0.0000      0.0000      0.0000
 ZX           0.0000      0.0000      0.0000      0.0000      0.0000      0.0000
 --------------------------------------------------------------------------------



--------------------------------------------------------------------------------------------------------


  LATTYP: Found a simple cubic cell.
 ALAT       =     3.9866190269
  
  Lattice vectors:
  
 A1 = (   3.9866190269,   0.0000000000,   0.0000000000)
 A2 = (   0.0000000000,   3.9866190269,   0.0000000000)
 A3 = (   0.0000000000,   0.0000000000,   3.9866190269)


Analysis of symmetry for initial positions (statically):
=====================================================================
 Subroutine PRICEL returns:
 Original cell was already a primitive cell.
 

 Routine SETGRP: Setting up the symmetry group for a 
 simple cubic supercell.


 Subroutine GETGRP returns: Found 48 space group operations
 (whereof 48 operations were pure point group operations)
 out of a pool of 48 trial point group operations.


The static configuration has the point symmetry O_h .


Analysis of symmetry for dynamics (positions and initial velocities):
=====================================================================
 Subroutine PRICEL returns:
 Original cell was already a primitive cell.
 

 Routine SETGRP: Setting up the symmetry group for a 
 simple cubic supercell.


 Subroutine GETGRP returns: Found 48 space group operations
 (whereof 48 operations were pure point group operations)
 out of a pool of 48 trial point group operations.


The dynamic configuration has the point symmetry O_h .


 Subroutine INISYM returns: Found 48 space group operations
 (whereof 48 operations are pure point group operations),
 and found     1 'primitive' translations

 
 KPOINTS: Automatic 6x6x6                         

Automatic generation of k-mesh.
Space group operators:
 irot       det(A)        alpha          n_x          n_y          n_z        tau_x        tau_y        tau_z
    1     1.000000     0.000000     1.000000     0.000000     0.000000     0.000000     0.000000     0.000000
    2    -1.000000     0.000000     1.000000     0.000000     0.000000     0.000000     0.000000     0.000000
    3     1.000000   120.000000    -0.577350    -0.577350    -0.577350     0.000000     0.000000     0.000000
    4    -1.000000   120.000000    -0.577350    -0.577350    -0.577350     0.000000     0.000000     0.000000
    5     1.000000   120.000000     0.577350     0.577350     0.577350     0.000000     0.000000     0.000000
    6    -1.000000   120.000000     0.577350     0.577350     0.577350     0.000000     0.000000     0.000000
    7     1.000000    90.000000     0.000000     0.000000    -1.000000     0.000000     0.000000     0.000000
    8    -1.000000    90.000000     0.000000     0.000000    -1.000000     0.000000     0.000000     0.000000
    9     1.000000   180.000000     0.000000     0.707107     0.707107     0.000000     0.000000     0.000000
   10    -1.000000   180.000000     0.000000     0.707107     0.707107     0.000000     0.000000     0.000000
   11     1.000000    90.000000     0.000000     1.000000     0.000000     0.000000     0.000000     0.000000
   12    -1.000000    90.000000     0.000000     1.000000     0.000000     0.000000     0.000000     0.000000
   13     1.000000   180.000000     0.000000     0.000000     1.000000     0.000000     0.000000     0.000000
   14    -1.000000   180.000000     0.000000     0.000000     1.000000     0.000000     0.000000     0.000000
   15     1.000000   120.000000    -0.577350     0.577350     0.577350     0.000000     0.000000     0.000000
   16    -1.000000   120.000000    -0.577350     0.577350     0.577350     0.000000     0.000000     0.000000
   17     1.000000   120.000000    -0.577350     0.577350    -0.577350     0.000000     0.000000     0.000000
   18    -1.000000   120.000000    -0.577350     0.577350    -0.577350     0.000000     0.000000     0.000000
   19     1.000000    90.000000     0.000000     0.000000     1.000000     0.000000     0.000000     0.000000
   20    -1.000000    90.000000     0.000000     0.000000     1.000000     0.000000     0.000000     0.000000
   21     1.000000    90.000000    -1.000000     0.000000     0.000000     0.000000     0.000000     0.000000
   22    -1.000000    90.000000    -1.000000     0.000000     0.000000     0.000000     0.000000     0.000000
   23     1.000000   180.000000     0.707107     0.000000     0.707107     0.000000     0.000000     0.000000
   24    -1.000000   180.000000     0.707107     0.000000     0.707107     0.000000     0.000000     0.000000
   25     1.000000   120.000000     0.577350    -0.577350     0.577350     0.000000     0.000000     0.000000
   26    -1.000000   120.000000     0.577350    -0.577350     0.577350     0.000000     0.000000     0.000000
   27     1.000000   120.000000    -0.577350    -0.577350     0.577350     0.000000     0.000000     0.000000
   28    -1.000000   120.000000    -0.577350    -0.577350     0.577350     0.000000     0.000000     0.000000
   29     1.000000   180.000000     1.000000     0.000000     0.000000     0.000000     0.000000     0.000000
   30    -1.000000   180.000000     1.000000     0.000000     0.000000     0.000000     0.000000     0.000000
   31     1.000000    90.000000     0.000000    -1.000000     0.000000     0.000000     0.000000     0.000000
   32    -1.000000    90.000000     0.000000    -1.000000     0.000000     0.000000     0.000000     0.000000
   33     1.000000   180.000000     0.707107     0.707107     0.000000     0.000000     0.000000     0.000000
   34    -1.000000   180.000000     0.707107     0.707107     0.000000     0.000000     0.000000     0.000000
   35     1.000000    90.000000     1.000000     0.000000     0.000000     0.000000     0.000000     0.000000
   36    -1.000000    90.000000     1.000000     0.000000     0.000000     0.000000     0.000000     0.000000
   37     1.000000   120.000000     0.577350    -0.577350    -0.577350     0.000000     0.000000     0.000000
   38    -1.000000   120.000000     0.577350    -0.577350    -0.577350     0.000000     0.000000     0.000000
   39     1.000000   180.000000     0.000000     1.000000     0.000000     0.000000     0.000000     0.000000
   40    -1.000000   180.000000     0.000000     1.000000     0.000000     0.000000     0.000000     0.000000
   41     1.000000   120.000000     0.577350     0.577350    -0.577350     0.000000     0.000000     0.000000
   42    -1.000000   120.000000     0.577350     0.577350    -0.577350     0.000000     0.000000     0.000000
   43     1.000000   180.000000     0.000000    -0.707107     0.707107     0.000000     0.000000     0.000000
   44    -1.000000   180.000000     0.000000    -0.707107     0.707107     0.000000     0.000000     0.000000
   45     1.000000   180.000000     0.707107    -0.707107     0.000000     0.000000     0.000000     0.000000
   46    -1.000000   180.000000     0.707107    -0.707107     0.000000     0.000000     0.000000     0.000000
   47     1.000000   180.000000     0.707107     0.000000    -0.707107     0.000000     0.000000     0.000000
   48    -1.000000   180.000000     0.707107     0.000000    -0.707107     0.000000     0.000000     0.000000
 
 Subroutine IBZKPT returns following result:
 ===========================================
 
 Found     20 irreducible k-points:
 
 Following reciprocal coordinates:
            Coordinates               Weight
  0.000000  0.000000  0.000000      1.000000
  0.166667  0.000000  0.000000      6.000000
  0.333333  0.000000  0.000000      6.000000
  0.500000  0.000000  0.000000      3.000000
  0.166667  0.166667  0.000000     12.000000
  0.333333  0.166667  0.000000     24.000000
  0.500000  0.166667  0.000000     12.000000
  0.333333  0.333333  0.000000     12.000000
  0.500000  0.333333  0.000000     12.000000
  0.500000  0.500000  0.000000      3.000000
  0.166667  0.166667  0.166667      8.000000
  0.333333  0.166667  0.166667     24.000000
  0.500000  0.166667  0.166667     12.000000
  0.333333  0.333333  0.166667     24.000000
  0.500000  0.333333  0.166667     24.000000
  0.500000  0.500000  0.166667      6.000000
  0.333333  0.333333  0.333333      8.000000
  0.500000  0.333333  0.333333     12.000000
  0.500000  0.500000  0.333333      6.000000
  0.500000  0.500000  0.500000      1.000000
 
 Following cartesian coordinates:
            Coordinates               Weight
  0.000000  0.000000  0.000000      1.000000
  0.041807  0.000000  0.000000      6.000000
  0.083613  0.000000  0.000000      6.000000
  0.125420  0.000000  0.000000      3.000000
  0.041807  0.041807  0.000000     12.000000
  0.083613  0.041807  0.000000     24.000000
  0.125420  0.041807  0.000000     12.000000
  0.083613  0.083613  0.000000     12.000000
  0.125420  0.083613  0.000000     12.000000
  0.125420  0.125420  0.000000      3.000000
  0.041807  0.041807  0.041807      8.000000
  0.083613  0.041807  0.041807     24.000000
  0.125420  0.041807  0.041807     12.000000
  0.083613  0.083613  0.041807     24.000000
  0.125420  0.083613  0.041807     24.000000
  0.125420  0.125420  0.041807      6.000000
  0.083613  0.083613  0.083613      8.000000
  0.125420  0.083613  0.083613     12.000000
  0.125420  0.125420  0.083613      6.000000
  0.125420  0.125420  0.125420      1.000000
 
     LOOP+:  cpu time   13.3490: real time   13.3658
    4ORBIT:  cpu time    0.0000: real time    0.0000

 total amount of memory used by VASP MPI-rank0    66801. kBytes
=======================================================================

   base      :      30000. kBytes
   nonl-proj :      28566. kBytes
   fftplans  :       1344. kBytes
   grid      :       4672. kBytes
   one-center:         77. kBytes
   wavefun   :       2142. kBytes
 
  
  
 General timing and accounting informations for this job:
 ========================================================
  
                  Total CPU time used (sec):       92.700
                            User time (sec):       91.895
                          System time (sec):        0.805
                         Elapsed time (sec):       92.959
  
                   Maximum memory used (kb):      150280.
                   Average memory used (kb):           0.
  
                          Minor page faults:        64537
                          Major page faults:            0
                 Voluntary context switches:         5783
